<?xml version="1.0" encoding="UTF-8"?>

<!-- generated on 2025-10-06 14:33:53 by Eclipse SUMO GUI Version 1.22.0
<sumoConfiguration xmlns:xsi="http://www.w3.org/2001/XMLSchema-instance" xsi:noNamespaceSchemaLocation="http://sumo.dlr.de/xsd/sumoConfiguration.xsd">

    <input>
        <net-file value="C:\Users\taiyo\laboratory\data\crossroads_trafficLight.net.xml"/>
    </input>

    <output>
        <tripinfo-output value="C:\Users\taiyo\laboratory\data\tripinfo.xml"/>
    </output>

</sumoConfiguration>
-->

<tripinfos xmlns:xsi="http://www.w3.org/2001/XMLSchema-instance" xsi:noNamespaceSchemaLocation="http://sumo.dlr.de/xsd/tripinfo_file.xsd">
</tripinfos>
